Title: * Carga condensador
Date: Wed Jan 06 12:30:09 2021
Plotname: Transient Analysis
Flags: real forward
No. Variables: 11
No. Points:         1045
Offset:   0.0000000000000000e+000
Command: Linear Technology Corporation LTspice XVII
Variables:
	0	time	time
	1	V(1)	voltage
	2	V(2)	voltage
	3	V(3)	voltage
	4	V(4)	voltage
	5	I(C2)	device_current
	6	I(C1)	device_current
	7	I(R1)	device_current
	8	I(V2dummy)	device_current
	9	I(V1dummy)	device_current
	10	I(V0)	device_current
Values:
0		0.000000000000000e+000
	-1.000000000000000e+001
	-9.999998333333609e+000
	-1.000000000000000e+001
	-1.000000000000000e+001
	1.666666390676141e-003
	1.666666390676141e-003
	3.333332777777870e-003
	1.666666390519822e-003
	1.666666390519822e-003
	-3.333332781039644e-003
1		9.999999717180685e-010
	-1.000000000000000e+001
	-9.999999951690821e+000
	-1.000000000000000e+001
	-1.000000000000000e+001
	1.062801965405672e-003
	2.270531471548480e-003
	3.333333317230274e-003
	1.062801980879158e-003
	2.270531433168799e-003
	-3.333333414047957e-003
2		1.999999943436137e-009
	-1.000000000000000e+001
	-9.999999903381642e+000
	-1.000000000000000e+001
	-1.000000000000000e+001
	1.062801965405672e-003
	2.270531471548480e-003
	3.333333301127214e-003
	1.062801980879158e-003
	2.270531433168799e-003
	-3.333333414047957e-003
3		3.999999886872274e-009
	-1.000000000000000e+001
	-9.999999806763285e+000
	-1.000000000000000e+001
	-1.000000000000000e+001
	1.062801965405672e-003
	2.270531471548480e-003
	3.333333268921095e-003
	1.062801980879158e-003
	2.270531433168799e-003
	-3.333333414047957e-003
4		7.999999773744548e-009
	-1.000000000000000e+001
	-9.999999613526576e+000
	-1.000000000000000e+001
	-1.000000000000000e+001
	1.062801887245968e-003
	2.270531304570935e-003
	3.333333204508859e-003
	1.062801893567666e-003
	2.270531287649646e-003
	-3.333333181217313e-003
5		1.599999954748910e-008
	-1.000000000000000e+001
	-9.999999227053181e+000
	-1.000000000000000e+001
	-1.000000000000000e+001
	1.062801848166116e-003
	2.270531221082158e-003
	3.333333075684394e-003
	1.062801849911921e-003
	2.270531214890070e-003
	-3.333333064801991e-003
6		3.199999909497819e-008
	-1.000000000000000e+001
	-9.999998454106432e+000
	-1.000000000000000e+001
	-1.000000000000000e+001
	1.062801770006415e-003
	2.270531054104611e-003
	3.333332818035477e-003
	1.062801769876387e-003
	2.270531054819003e-003
	-3.333332824695390e-003
7		6.399999818995639e-008
	-1.000000000000000e+001
	-9.999996908213113e+000
	-1.000000000000000e+001
	-1.000000000000000e+001
	1.062801603917044e-003
	2.270530699277324e-003
	3.333332302737704e-003
	1.062801604348351e-003
	2.270530698297080e-003
	-3.333332302645431e-003
8		1.279999963799128e-007
	-1.000000000000000e+001
	-9.999993816427194e+000
	-1.000000000000000e+001
	-1.000000000000000e+001
	1.062801275402043e-003
	2.270529997449815e-003
	3.333331272142398e-003
	1.062801276020764e-003
	2.270529997986159e-003
	-3.333331274006923e-003
9		2.559999927598256e-007
	-1.000000000000000e+001
	-9.999987632858225e+000
	-1.000000000000000e+001
	-1.000000000000000e+001
	1.062800617761414e-003
	2.270528592490299e-003
	3.333329210952742e-003
	1.062800618001347e-003
	2.270528591907350e-003
	-3.333329209908698e-003
10		5.119999855196511e-007
	-1.000000000000000e+001
	-9.999975265731759e+000
	-1.000000000000000e+001
	-1.000000000000000e+001
	1.062799303701407e-003
	2.270525785180275e-003
	3.333325088577253e-003
	1.062799303554129e-003
	2.270525784751953e-003
	-3.333325088306083e-003
11		1.023999971039302e-006
	-1.000000000000000e+001
	-9.999950531524709e+000
	-1.000000000000000e+001
	-1.000000000000000e+001
	1.062796674818109e-003
	2.270520168929602e-003
	3.333316843841569e-003
	1.062796674773381e-003
	2.270520168849544e-003
	-3.333316843622924e-003
12		2.047999942078604e-006
	-1.000000000000000e+001
	-9.999901063294143e+000
	-1.000000000000000e+001
	-1.000000000000000e+001
	1.062791417433156e-003
	2.270508937243556e-003
	3.333300354431381e-003
	1.062791417439257e-003
	2.270508937272098e-003
	-3.333300354711355e-003
13		4.095999884157209e-006
	-1.000000000000000e+001
	-9.999802127567143e+000
	-1.000000000000000e+001
	-1.000000000000000e+001
	1.062780902434263e-003
	2.270486473382296e-003
	3.333267375855714e-003
	1.062780902458371e-003
	2.270486473321398e-003
	-3.333267375779769e-003
14		8.191999768314418e-006
	-1.000000000000000e+001
	-9.999604259049649e+000
	-1.000000000000000e+001
	-1.000000000000000e+001
	1.062759872951694e-003
	2.270441546760435e-003
	3.333201419683216e-003
	1.062759872951347e-003
	2.270441546755819e-003
	-3.333201419707166e-003
15		1.638399953662884e-005
	-1.000000000000000e+001
	-9.999208533760360e+000
	-1.000000000000000e+001
	-1.000000000000000e+001
	1.062717815179176e-003
	2.270351696064607e-003
	3.333069511253453e-003
	1.062717815180747e-003
	2.270351696068929e-003
	-3.333069511249676e-003
16		3.276799907325767e-005
	-1.000000000000000e+001
	-9.998417130162267e+000
	-1.000000000000000e+001
	-1.000000000000000e+001
	1.062633704652696e-003
	2.270172005394393e-003
	3.332805710054089e-003
	1.062633704655980e-003
	2.270172005395921e-003
	-3.332805710051900e-003
17		6.553599814651534e-005
	-1.000000000000000e+001
	-9.996834510869409e+000
	-1.000000000000000e+001
	-1.000000000000000e+001
	1.062465503573777e-003
	2.269812666725799e-003
	3.332278170289803e-003
	1.062465503574472e-003
	2.269812666725102e-003
	-3.332278170299574e-003
18		1.310719962930307e-004
	-1.000000000000000e+001
	-9.993670023748321e+000
	-1.000000000000000e+001
	-1.000000000000000e+001
	1.062129181267971e-003
	2.269094159981572e-003
	3.331223341249440e-003
	1.062129181268467e-003
	2.269094159981222e-003
	-3.331223341249689e-003
19		2.621439925860614e-004
	-1.000000000000000e+001
	-9.987344054175487e+000
	-1.000000000000000e+001
	-1.000000000000000e+001
	1.061456855999501e-003
	2.267657828726212e-003
	3.329114684725162e-003
	1.061456855999232e-003
	2.267657828726399e-003
	-3.329114684725631e-003
20		5.242879851721227e-004
	-1.000000000000000e+001
	-9.974704124200427e+000
	-1.000000000000000e+001
	-1.000000000000000e+001
	1.060113481799028e-003
	2.264787892934285e-003
	3.324901374733476e-003
	1.060113481799130e-003
	2.264787892934272e-003
	-3.324901374733402e-003
21		1.048575970344245e-003
	-1.000000000000000e+001
	-9.949472224987069e+000
	-1.000000000000000e+001
	-1.000000000000000e+001
	1.057431830675119e-003
	2.259058910987757e-003
	3.316490741662356e-003
	1.057431830675082e-003
	2.259058910987877e-003
	-3.316490741662959e-003
22		2.025138470344245e-003
	-1.000000000000000e+001
	-9.902644127461851e+000
	-1.000000000000000e+001
	-1.000000000000000e+001
	1.052454931421097e-003
	2.248426444399615e-003
	3.300881375820617e-003
	1.052454931421087e-003
	2.248426444399598e-003
	-3.300881375820686e-003
23		3.001700970344245e-003
	-1.000000000000000e+001
	-9.856036430644156e+000
	-1.000000000000000e+001
	-1.000000000000000e+001
	1.047501456396973e-003
	2.237844020484442e-003
	3.285345476881385e-003
	1.047501456396982e-003
	2.237844020484436e-003
	-3.285345476881418e-003
24		3.978263470344245e-003
	-1.000000000000000e+001
	-9.809648097197970e+000
	-1.000000000000000e+001
	-1.000000000000000e+001
	1.042571295354415e-003
	2.227311403711702e-003
	3.269882699065990e-003
	1.042571295354400e-003
	2.227311403711685e-003
	-3.269882699066085e-003
25		4.954825970344245e-003
	-1.000000000000000e+001
	-9.763478094669598e+000
	-1.000000000000000e+001
	-1.000000000000000e+001
	1.037664338563931e-003
	2.216828359659310e-003
	3.254492698223199e-003
	1.037664338563948e-003
	2.216828359659306e-003
	-3.254492698223255e-003
26		5.931388470344245e-003
	-1.000000000000000e+001
	-9.717525395464683e+000
	-1.000000000000000e+001
	-1.000000000000000e+001
	1.032780476812691e-003
	2.206394655008933e-003
	3.239175131821561e-003
	1.032780476812656e-003
	2.206394655008936e-003
	-3.239175131821592e-003
27		6.907950970344245e-003
	-1.000000000000000e+001
	-9.671788976825336e+000
	-1.000000000000000e+001
	-1.000000000000000e+001
	1.027919601401738e-003
	2.196010057540075e-003
	3.223929658941779e-003
	1.027919601401695e-003
	2.196010057539999e-003
	-3.223929658941693e-003
28		7.884513470344245e-003
	-1.000000000000000e+001
	-9.626267820807369e+000
	-1.000000000000000e+001
	-1.000000000000000e+001
	1.023081604143813e-003
	2.185674336125425e-003
	3.208755940269123e-003
	1.023081604143827e-003
	2.185674336125376e-003
	-3.208755940269203e-003
29		8.861075970344245e-003
	-1.000000000000000e+001
	-9.580960914257641e+000
	-1.000000000000000e+001
	-1.000000000000000e+001
	1.018266377360737e-003
	2.175387260725213e-003
	3.193653638085880e-003
	1.018266377360744e-003
	2.175387260725081e-003
	-3.193653638085825e-003
30		9.837638470344245e-003
	-1.000000000000000e+001
	-9.535867248791512e+000
	-1.000000000000000e+001
	-1.000000000000000e+001
	1.013473813881224e-003
	2.165148602382608e-003
	3.178622416263837e-003
	1.013473813881227e-003
	2.165148602382483e-003
	-3.178622416263710e-003
31		1.081420097034425e-002
	-1.000000000000000e+001
	-9.490985820770391e+000
	-1.000000000000000e+001
	-1.000000000000000e+001
	1.008703807038422e-003
	2.154958133218456e-003
	3.163661940256797e-003
	1.008703807038436e-003
	2.154958133218310e-003
	-3.163661940256746e-003
32		1.179076347034425e-002
	-1.000000000000000e+001
	-9.446315631279406e+000
	-1.000000000000000e+001
	-1.000000000000000e+001
	1.003956250667407e-003
	2.144815626425808e-003
	3.148771877093135e-003
	1.003956250667404e-003
	2.144815626425767e-003
	-3.148771877093171e-003
33		1.276732597034425e-002
	-1.000000000000000e+001
	-9.401855686105170e+000
	-1.000000000000000e+001
	-1.000000000000000e+001
	9.992310391029775e-004
	2.134720856265468e-003
	3.133951895368390e-003
	9.992310391029879e-004
	2.134720856265426e-003
	-3.133951895368414e-003
34		1.374388847034425e-002
	-1.000000000000000e+001
	-9.357604995713651e+000
	-1.000000000000000e+001
	-1.000000000000000e+001
	9.945280671773624e-004
	2.124673598060720e-003
	3.119201665237883e-003
	9.945280671773693e-004
	2.124673598060678e-003
	-3.119201665238047e-003
35		1.472045097034425e-002
	-1.000000000000000e+001
	-9.313562575228147e+000
	-1.000000000000000e+001
	-1.000000000000000e+001
	9.898472302175033e-004
	2.114673628191940e-003
	3.104520858409382e-003
	9.898472302174999e-004
	2.114673628191843e-003
	-3.104520858409343e-003
36		1.569701347034425e-002
	-1.000000000000000e+001
	-9.269727444407373e+000
	-1.000000000000000e+001
	-1.000000000000000e+001
	9.851884240433331e-004
	2.104720724092568e-003
	3.089909148135791e-003
	9.851884240433262e-004
	2.104720724092513e-003
	-3.089909148135839e-003
37		1.667357597034425e-002
	-1.000000000000000e+001
	-9.226098627623633e+000
	-1.000000000000000e+001
	-1.000000000000000e+001
	9.805515449648541e-004
	2.094814664243092e-003
	3.075366209207878e-003
	9.805515449648472e-004
	2.094814664242994e-003
	-3.075366209207842e-003
38		1.765013847034425e-002
	-1.000000000000000e+001
	-9.182675153841117e+000
	-1.000000000000000e+001
	-1.000000000000000e+001
	9.759364897802200e-004
	2.084955228166846e-003
	3.060891717947039e-003
	9.759364897801715e-004
	2.084955228166763e-003
	-3.060891717946934e-003
39		1.862670097034425e-002
	-1.000000000000000e+001
	-9.139456056594280e+000
	-1.000000000000000e+001
	-1.000000000000000e+001
	9.713431557732966e-004
	2.075142196424767e-003
	3.046485352198093e-003
	9.713431557732966e-004
	2.075142196424684e-003
	-3.046485352197981e-003
40		1.960326347034425e-002
	-1.000000000000000e+001
	-9.096440373966335e+000
	-1.000000000000000e+001
	-1.000000000000000e+001
	9.667714407114655e-004
	2.065375350610868e-003
	3.032146791322112e-003
	9.667714407114447e-004
	2.065375350610799e-003
	-3.032146791322243e-003
41		2.057982597034425e-002
	-1.000000000000000e+001
	-9.053627148567843e+000
	-1.000000000000000e+001
	-1.000000000000000e+001
	9.622212428430019e-004
	2.055654473346422e-003
	3.017875716189281e-003
	9.622212428429533e-004
	2.055654473346325e-003
	-3.017875716189278e-003
42		2.155638847034425e-002
	-1.000000000000000e+001
	-9.011015427515412e+000
	-1.000000000000000e+001
	-1.000000000000000e+001
	9.576924608953596e-004
	2.045979348276467e-003
	3.003671809171804e-003
	9.576924608953319e-004
	2.045979348276439e-003
	-3.003671809171771e-003
43		2.253295097034425e-002
	-1.000000000000000e+001
	-8.968604262410477e+000
	-1.000000000000000e+001
	-1.000000000000000e+001
	9.531849940726603e-004
	2.036349760064296e-003
	2.989534754136825e-003
	9.531849940726533e-004
	2.036349760064171e-003
	-2.989534754136825e-003
44		2.350951347034425e-002
	-1.000000000000000e+001
	-8.926392709318197e+000
	-1.000000000000000e+001
	-1.000000000000000e+001
	9.486987420531251e-004
	2.026765494386268e-003
	2.975464236439399e-003
	9.486987420531667e-004
	2.026765494386185e-003
	-2.975464236439351e-003
45		2.448607597034425e-002
	-1.000000000000000e+001
	-8.884379828746450e+000
	-1.000000000000000e+001
	-1.000000000000000e+001
	9.442336049875419e-004
	2.017226337927877e-003
	2.961459942915483e-003
	9.442336049875211e-004
	2.017226337927891e-003
	-2.961459942915412e-003
46		2.546263847034425e-002
	-1.000000000000000e+001
	-8.842564685624915e+000
	-1.000000000000000e+001
	-1.000000000000000e+001
	9.397894834964130e-004
	2.007732078378746e-003
	2.947521561874971e-003
	9.397894834964338e-004
	2.007732078378677e-003
	-2.947521561875111e-003
47		2.643920097034425e-002
	-1.000000000000000e+001
	-8.800946349284265e+000
	-1.000000000000000e+001
	-1.000000000000000e+001
	9.353662786679359e-004
	1.998282504426907e-003
	2.933648783094755e-003
	9.353662786679706e-004
	1.998282504426796e-003
	-2.933648783094767e-003
48		2.741576347034425e-002
	-1.000000000000000e+001
	-8.759523893435459e+000
	-1.000000000000000e+001
	-1.000000000000000e+001
	9.309638920559499e-004
	1.988877405755929e-003
	2.919841297811819e-003
	9.309638920559360e-004
	1.988877405755818e-003
	-2.919841297811754e-003
49		2.839232597034425e-002
	-1.000000000000000e+001
	-8.718296396149112e+000
	-1.000000000000000e+001
	-1.000000000000000e+001
	9.265822256777287e-004
	1.979516573038742e-003
	2.906098798716371e-003
	9.265822256777079e-004
	1.979516573038631e-003
	-2.906098798716339e-003
50		2.936888847034425e-002
	-1.000000000000000e+001
	-8.677262939834989e+000
	-1.000000000000000e+001
	-1.000000000000000e+001
	9.222211820114554e-004
	1.970199797933586e-003
	2.892420979944996e-003
	9.222211820114623e-004
	1.970199797933558e-003
	-2.892420979945021e-003
51		3.034545097034425e-002
	-1.000000000000000e+001
	-8.636422611221574e+000
	-1.000000000000000e+001
	-1.000000000000000e+001
	9.178806639946260e-004
	1.960926873079388e-003
	2.878807537073858e-003
	9.178806639946191e-004
	1.960926873079361e-003
	-2.878807537073980e-003
52		3.132201347034425e-002
	-1.000000000000000e+001
	-8.595774501335749e+000
	-1.000000000000000e+001
	-1.000000000000000e+001
	9.135605750211912e-004
	1.951697592090795e-003
	2.865258167111916e-003
	9.135605750212328e-004
	1.951697592090684e-003
	-2.865258167111917e-003
53		3.229857597034425e-002
	-1.000000000000000e+001
	-8.555317705482558e+000
	-1.000000000000000e+001
	-1.000000000000000e+001
	9.092608189402163e-004
	1.942511749553982e-003
	2.851772568494186e-003
	9.092608189402163e-004
	1.942511749553955e-003
	-2.851772568494171e-003
54		3.327513847034425e-002
	-1.000000000000000e+001
	-8.515051323225077e+000
	-1.000000000000000e+001
	-1.000000000000000e+001
	9.049813000529539e-004
	1.933369141022295e-003
	2.838350441075025e-003
	9.049813000528983e-004
	1.933369141022268e-003
	-2.838350441075166e-003
55		3.425170097034425e-002
	-1.000000000000000e+001
	-8.474974458364368e+000
	-1.000000000000000e+001
	-1.000000000000000e+001
	9.007219231111779e-004
	1.924269563010200e-003
	2.824991486121456e-003
	9.007219231111918e-004
	1.924269563010173e-003
	-2.824991486121364e-003
56		3.522826347034425e-002
	-1.000000000000000e+001
	-8.435086218919539e+000
	-1.000000000000000e+001
	-1.000000000000000e+001
	8.964825933151233e-004
	1.915212812991451e-003
	2.811695406306513e-003
	8.964825933150955e-004
	1.915212812991340e-003
	-2.811695406306436e-003
57		3.620482597034425e-002
	-1.000000000000000e+001
	-8.395385717107880e+000
	-1.000000000000000e+001
	-1.000000000000000e+001
	8.922632163110289e-004
	1.906198689391736e-003
	2.798461905702627e-003
	8.922632163110289e-004
	1.906198689391681e-003
	-2.798461905702709e-003
58		3.718138847034425e-002
	-1.000000000000000e+001
	-8.355872069325118e+000
	-1.000000000000000e+001
	-1.000000000000000e+001
	8.880636981891538e-004
	1.897226991585926e-003
	2.785290689775039e-003
	8.880636981891676e-004
	1.897226991585899e-003
	-2.785290689775066e-003
59		3.815795097034425e-002
	-1.000000000000000e+001
	-8.316544396125742e+000
	-1.000000000000000e+001
	-1.000000000000000e+001
	8.838839454819586e-004
	1.888297519893306e-003
	2.772181465375247e-003
	8.838839454820002e-004
	1.888297519893278e-003
	-2.772181465375279e-003
60		3.913451347034425e-002
	-1.000000000000000e+001
	-8.277401822203430e+000
	-1.000000000000000e+001
	-1.000000000000000e+001
	8.797238651618022e-004
	1.879410075572907e-003
	2.759133940734476e-003
	8.797238651617745e-004
	1.879410075572796e-003
	-2.759133940734571e-003
61		4.011107597034425e-002
	-1.000000000000000e+001
	-8.238443476371570e+000
	-1.000000000000000e+001
	-1.000000000000000e+001
	8.755833646385547e-004
	1.870564460818736e-003
	2.746147825457190e-003
	8.755833646385547e-004
	1.870564460818680e-003
	-2.746147825457235e-003
62		4.108763847034425e-002
	-1.000000000000000e+001
	-8.199668491543871e+000
	-1.000000000000000e+001
	-1.000000000000000e+001
	8.714623517583064e-004
	1.861760478756386e-003
	2.733222830514624e-003
	8.714623517582787e-004
	1.861760478756414e-003
	-2.733222830514692e-003
63		4.206420097034425e-002
	-1.000000000000000e+001
	-8.161076004715060e+000
	-1.000000000000000e+001
	-1.000000000000000e+001
	8.673607348006762e-004
	1.852997933437850e-003
	2.720358668238353e-003
	8.673607348006485e-004
	1.852997933437850e-003
	-2.720358668238498e-003
64		4.304076347034425e-002
	-1.000000000000000e+001
	-8.122665156941677e+000
	-1.000000000000000e+001
	-1.000000000000000e+001
	8.632784224769236e-004
	1.844276629837022e-003
	2.707555052313892e-003
	8.632784224769097e-004
	1.844276629836994e-003
	-2.707555052313904e-003
65		4.401732597034425e-002
	-1.000000000000000e+001
	-8.084435093322959e+000
	-1.000000000000000e+001
	-1.000000000000000e+001
	8.592153239281170e-004
	1.835596373846449e-003
	2.694811697774320e-003
	8.592153239280753e-004
	1.835596373846449e-003
	-2.694811697774524e-003
66		4.499388847034425e-002
	-1.000000000000000e+001
	-8.046384962981811e+000
	-1.000000000000000e+001
	-1.000000000000000e+001
	8.551713487227192e-004
	1.826956972271226e-003
	2.682128320993937e-003
	8.551713487227053e-004
	1.826956972271199e-003
	-2.682128320993904e-003
67		4.597045097034425e-002
	-1.000000000000000e+001
	-8.008513919045871e+000
	-1.000000000000000e+001
	-1.000000000000000e+001
	8.511464068550884e-004
	1.818358232826806e-003
	2.669504639681957e-003
	8.511464068550190e-004
	1.818358232826722e-003
	-2.669504639681741e-003
68		4.694701347034425e-002
	-1.000000000000000e+001
	-7.970821118628653e+000
	-1.000000000000000e+001
	-1.000000000000000e+001
	8.471404087431883e-004
	1.809799964133163e-003
	2.656940372876217e-003
	8.471404087432299e-004
	1.809799964133108e-003
	-2.656940372876337e-003
69		4.792357597034425e-002
	-1.000000000000000e+001
	-7.933305722810795e+000
	-1.000000000000000e+001
	-1.000000000000000e+001
	8.431532652262846e-004
	1.801281975710695e-003
	2.644435240936932e-003
	8.431532652263263e-004
	1.801281975710722e-003
	-2.644435240937049e-003
70		4.890013847034425e-002
	-1.000000000000000e+001
	-7.895966896621390e+000
	-1.000000000000000e+001
	-1.000000000000000e+001
	8.391848875636404e-004
	1.792804077976828e-003
	2.631988965540463e-003
	8.391848875636265e-004
	1.792804077976773e-003
	-2.631988965540399e-003
71		4.987670097034425e-002
	-1.000000000000000e+001
	-7.858803809019393e+000
	-1.000000000000000e+001
	-1.000000000000000e+001
	8.352351874320318e-004
	1.784366082241196e-003
	2.619601269673131e-003
	8.352351874320041e-004
	1.784366082241085e-003
	-2.619601269673089e-003
72		5.085326347034425e-002
	-1.000000000000000e+001
	-7.821815632875129e+000
	-1.000000000000000e+001
	-1.000000000000000e+001
	8.313040769239860e-004
	1.775967800701217e-003
	2.607271877625043e-003
	8.313040769239999e-004
	1.775967800701217e-003
	-2.607271877625217e-003
73		5.182982597034425e-002
	-1.000000000000000e+001
	-7.785001544951889e+000
	-1.000000000000000e+001
	-1.000000000000000e+001
	8.273914685456019e-004
	1.767609046438329e-003
	2.595000514983963e-003
	8.273914685456019e-004
	1.767609046438246e-003
	-2.595000514983847e-003
74		5.280638847034425e-002
	-1.000000000000000e+001
	-7.748360725887599e+000
	-1.000000000000000e+001
	-1.000000000000000e+001
	8.234972752151487e-004
	1.759289633414179e-003
	2.582786908629199e-003
	8.234972752151348e-004
	1.759289633414096e-003
	-2.582786908629231e-003
75		5.378295097034425e-002
	-1.000000000000000e+001
	-7.711892360176586e+000
	-1.000000000000000e+001
	-1.000000000000000e+001
	8.196214102603322e-004
	1.751009376465246e-003
	2.570630786725528e-003
	8.196214102602628e-004
	1.751009376465107e-003
	-2.570630786725370e-003
76		5.475951347034425e-002
	-1.000000000000000e+001
	-7.675595636151432e+000
	-1.000000000000000e+001
	-1.000000000000000e+001
	8.157637874171009e-004
	1.742768091300168e-003
	2.558531878717144e-003
	8.157637874171009e-004
	1.742768091300140e-003
	-2.558531878717241e-003
77		5.573607597034425e-002
	-1.000000000000000e+001
	-7.639469745964904e+000
	-1.000000000000000e+001
	-1.000000000000000e+001
	8.119243208272314e-004
	1.734565594494503e-003
	2.546489915321635e-003
	8.119243208272176e-004
	1.734565594494475e-003
	-2.546489915321692e-003
78		5.671263847034425e-002
	-1.000000000000000e+001
	-7.603513885571976e+000
	-1.000000000000000e+001
	-1.000000000000000e+001
	8.081029250366356e-004
	1.726401703487340e-003
	2.534504628523992e-003
	8.081029250366356e-004
	1.726401703487257e-003
	-2.534504628523893e-003
79		5.768920097034425e-002
	-1.000000000000000e+001
	-7.567727254711933e+000
	-1.000000000000000e+001
	-1.000000000000000e+001
	8.042995149935561e-004
	1.718276236577165e-003
	2.522575751570644e-003
	8.042995149935561e-004
	1.718276236577054e-003
	-2.522575751570610e-003
80		5.866576347034425e-002
	-1.000000000000000e+001
	-7.532109056890559e+000
	-1.000000000000000e+001
	-1.000000000000000e+001
	8.005140060463739e-004
	1.710189012917224e-003
	2.510703018963520e-003
	8.005140060463600e-004
	1.710189012917085e-003
	-2.510703018963445e-003
81		5.964232597034425e-002
	-1.000000000000000e+001
	-7.496658499362412e+000
	-1.000000000000000e+001
	-1.000000000000000e+001
	7.967463139419151e-004
	1.702139852512330e-003
	2.498886166454137e-003
	7.967463139418873e-004
	1.702139852512330e-003
	-2.498886166454217e-003
82		6.061888847034425e-002
	-1.000000000000000e+001
	-7.461374793113178e+000
	-1.000000000000000e+001
	-1.000000000000000e+001
	7.929963548236746e-004
	1.694128576214149e-003
	2.487124931037726e-003
	7.929963548236607e-004
	1.694128576214093e-003
	-2.487124931037754e-003
83		6.159545097034425e-002
	-1.000000000000000e+001
	-7.426257152842112e+000
	-1.000000000000000e+001
	-1.000000000000000e+001
	7.892640452295957e-004
	1.686155005717810e-003
	2.475419050947370e-003
	7.892640452296096e-004
	1.686155005717782e-003
	-2.475419050947392e-003
84		6.257201347034425e-002
	-1.000000000000000e+001
	-7.391304796944556e+000
	-1.000000000000000e+001
	-1.000000000000000e+001
	7.855493020907794e-004
	1.678218963557493e-003
	2.463768265648186e-003
	7.855493020907378e-004
	1.678218963557465e-003
	-2.463768265648203e-003
85		6.354857597034425e-002
	-1.000000000000000e+001
	-7.356516947494549e+000
	-1.000000000000000e+001
	-1.000000000000000e+001
	7.818520427288755e-004
	1.670320273102710e-003
	2.452172315831516e-003
	7.818520427288478e-004
	1.670320273102655e-003
	-2.452172315831502e-003
86		6.452513847034425e-002
	-1.000000000000000e+001
	-7.321892830227505e+000
	-1.000000000000000e+001
	-1.000000000000000e+001
	7.781721848551804e-004
	1.662458758554142e-003
	2.440630943409168e-003
	7.781721848552081e-004
	1.662458758554086e-003
	-2.440630943409294e-003
87		6.550170097034425e-002
	-1.000000000000000e+001
	-7.287431674522987e+000
	-1.000000000000000e+001
	-1.000000000000000e+001
	7.745096465676948e-004
	1.654634244940167e-003
	2.429143891507662e-003
	7.745096465676671e-004
	1.654634244940056e-003
	-2.429143891507724e-003
88		6.647826347034425e-002
	-1.000000000000000e+001
	-7.253132713387555e+000
	-1.000000000000000e+001
	-1.000000000000000e+001
	7.708643463504028e-004
	1.646846558112147e-003
	2.417710904462518e-003
	7.708643463504306e-004
	1.646846558112092e-003
	-2.417710904462522e-003
89		6.745482597034425e-002
	-1.000000000000000e+001
	-7.218995183437693e+000
	-1.000000000000000e+001
	-1.000000000000000e+001
	7.672362030707036e-004
	1.639095524741951e-003
	2.406331727812564e-003
	7.672362030707314e-004
	1.639095524741951e-003
	-2.406331727812683e-003
90		6.843138847034425e-002
	-1.000000000000000e+001
	-7.185018324882817e+000
	-1.000000000000000e+001
	-1.000000000000000e+001
	7.636251359779134e-004
	1.631380972316465e-003
	2.395006108294272e-003
	7.636251359779411e-004
	1.631380972316410e-003
	-2.395006108294351e-003
91		6.940795097034425e-002
	-1.000000000000000e+001
	-7.151201381508368e+000
	-1.000000000000000e+001
	-1.000000000000000e+001
	7.600310647014053e-004
	1.623702729134646e-003
	2.383733793836123e-003
	7.600310647013497e-004
	1.623702729134591e-003
	-2.383733793835940e-003
92		7.038451347034425e-002
	-1.000000000000000e+001
	-7.117543600658980e+000
	-1.000000000000000e+001
	-1.000000000000000e+001
	7.564539092487499e-004
	1.616060624304361e-003
	2.372514533552993e-003
	7.564539092487221e-004
	1.616060624304305e-003
	-2.372514533553027e-003
93		7.136107597034425e-002
	-1.000000000000000e+001
	-7.084044233221724e+000
	-1.000000000000000e+001
	-1.000000000000000e+001
	7.528935900043554e-004
	1.608454487736333e-003
	2.361348077740575e-003
	7.528935900042999e-004
	1.608454487736277e-003
	-2.361348077740577e-003
94		7.233763847034425e-002
	-1.000000000000000e+001
	-7.050702533609446e+000
	-1.000000000000000e+001
	-1.000000000000000e+001
	7.493500277265808e-004
	1.600884150143367e-003
	2.350234177869815e-003
	7.493500277265808e-004
	1.600884150143256e-003
	-2.350234177869837e-003
95		7.331420097034425e-002
	-1.000000000000000e+001
	-7.017517759744163e+000
	-1.000000000000000e+001
	-1.000000000000000e+001
	7.458231435477913e-004
	1.593349443033576e-003
	2.339172586581387e-003
	7.458231435477636e-004
	1.593349443033465e-003
	-2.339172586581229e-003
96		7.429076347034425e-002
	-1.000000000000000e+001
	-6.984489173040549e+000
	-1.000000000000000e+001
	-1.000000000000000e+001
	7.423128589703898e-004
	1.585850198709771e-003
	2.328163057680183e-003
	7.423128589704175e-004
	1.585850198709715e-003
	-2.328163057680133e-003
97		7.526732597034425e-002
	-1.000000000000000e+001
	-6.951616038389496e+000
	-1.000000000000000e+001
	-1.000000000000000e+001
	7.388190958676211e-004
	1.578386250262243e-003
	2.317205346129832e-003
	7.388190958675933e-004
	1.578386250262187e-003
	-2.317205346129780e-003
98		7.624388847034425e-002
	-1.000000000000000e+001
	-6.918897624141754e+000
	-1.000000000000000e+001
	-1.000000000000000e+001
	7.353417764787429e-004
	1.570957431568598e-003
	2.306299208047251e-003
	7.353417764787151e-004
	1.570957431568543e-003
	-2.306299208047258e-003
99		7.722045097034425e-002
	-1.000000000000000e+001
	-6.886333202091651e+000
	-1.000000000000000e+001
	-1.000000000000000e+001
	7.318808234108298e-004
	1.563563577286375e-003
	2.295444400697217e-003
	7.318808234108021e-004
	1.563563577286264e-003
	-2.295444400697067e-003
100		7.819701347034425e-002
	-1.000000000000000e+001
	-6.853922047460877e+000
	-1.000000000000000e+001
	-1.000000000000000e+001
	7.284361596334721e-004
	1.556204522853599e-003
	2.284640682486959e-003
	7.284361596334721e-004
	1.556204522853544e-003
	-2.284640682487016e-003
101		7.917357597034425e-002
	-1.000000000000000e+001
	-6.821663438882359e+000
	-1.000000000000000e+001
	-1.000000000000000e+001
	7.250077084803297e-004
	1.548880104480455e-003
	2.273887812960786e-003
	7.250077084802742e-004
	1.548880104480399e-003
	-2.273887812960673e-003
102		8.015013847034425e-002
	-1.000000000000000e+001
	-6.789556658384205e+000
	-1.000000000000000e+001
	-1.000000000000000e+001
	7.215953936446085e-004
	1.541590159150175e-003
	2.263185552794735e-003
	7.215953936445807e-004
	1.541590159150119e-003
	-2.263185552794700e-003
103		8.112670097034425e-002
	-1.000000000000000e+001
	-6.757600991373720e+000
	-1.000000000000000e+001
	-1.000000000000000e+001
	7.181991391799203e-004
	1.534334524611380e-003
	2.252533663791240e-003
	7.181991391799203e-004
	1.534334524611380e-003
	-2.252533663791301e-003
104		8.210326347034425e-002
	-1.000000000000000e+001
	-6.725795726621506e+000
	-1.000000000000000e+001
	-1.000000000000000e+001
	7.148188694959534e-004
	1.527113039377970e-003
	2.241931908873835e-003
	7.148188694959812e-004
	1.527113039377914e-003
	-2.241931908873895e-003
105		8.307982597034425e-002
	-1.000000000000000e+001
	-6.694140156245632e+000
	-1.000000000000000e+001
	-1.000000000000000e+001
	7.114545093595270e-004
	1.519925542722345e-003
	2.231380052081877e-003
	7.114545093594993e-004
	1.519925542722289e-003
	-2.231380052081788e-003
106		8.405638847034425e-002
	-1.000000000000000e+001
	-6.662633575695878e+000
	-1.000000000000000e+001
	-1.000000000000000e+001
	7.081059838903725e-004
	1.512771874675023e-003
	2.220877858565293e-003
	7.081059838903725e-004
	1.512771874675023e-003
	-2.220877858565395e-003
107		8.503295097034425e-002
	-1.000000000000000e+001
	-6.631275283738051e+000
	-1.000000000000000e+001
	-1.000000000000000e+001
	7.047732185616329e-004
	1.505651876017811e-003
	2.210425094579350e-003
	7.047732185616606e-004
	1.505651876017700e-003
	-2.210425094579360e-003
108		8.600951347034425e-002
	-1.000000000000000e+001
	-6.600064582438384e+000
	-1.000000000000000e+001
	-1.000000000000000e+001